
72 atoms
3 atom types
   0.0000000000    8.5840728674 xlo xhi
   0.0000000000   10.0464798040 ylo yhi
   0.0000000000    9.5602830173 zlo zhi
   0.0000000000    0.0000000000    0.0000000000 xy xz yz

Atoms # atomic

     1      1    5.3270029337    0.8471554020    7.5313690087
     2      1    1.0910729337    9.7263114020    1.6771190087
     3      1    3.0401129337    7.5622114020    5.8431890087
     4      1    0.1904779337    8.4569514020    0.1172160087
     5      1    0.3229039337    6.6379714020    4.0788690087
     6      1    2.3968029337    2.6967714020    0.0451540087
     7      1    4.0464129337    6.0469014020    7.0890590087
     8      1    8.1643429337    8.9281714020    2.7029690087
     9      1    6.1992929337    9.5479214020    6.2144290087
    10      1    4.1271429337    2.6662614020    5.3832890087
    11      1    3.2336329337    1.4094114020    8.1634690087
    12      1    1.7640229337    1.5885314020    1.9950190087
    13      1    6.0650829337    6.3452514020    7.7261990087
    14      1    1.4437729337    8.4271414020    3.7659090087
    15      1    7.1471129337    7.8064114020    4.8700690087
    16      1    1.7810829337    4.7744114020    1.8936390087
    17      1    4.4891129337    6.1354014020    4.5324990087
    18      1    1.6521429337    2.7192214020    5.5675590087
    19      1    2.9137129337    3.9978214020    3.7897590087
    20      1    8.4598429337    5.1691214020    1.8309090087
    21      1    6.3303029337    1.6359014020    4.9327590087
    22      1    5.0337629337    5.9968414020    0.2689000087
    23      1    8.3988429337    7.4790814020    7.5152690087
    24      1    3.6361529337    0.9163194020    1.2291590087
    25      1    3.1369529337    7.9794414020    3.0034590087
    26      1    7.7933429337    0.8078494020    1.9336190087
    27      1    6.4689029337    3.3632314020    1.3597690087
    28      1    8.4437829337    3.0008714020    1.0875090087
    29      1    4.8534629337    1.4508814020    3.1535290087
    30      1    3.0283129337    4.8166514020    5.6561390087
    31      1    6.9827229337    1.3586614020    9.0654990087
    32      1    3.2687929337    9.8743314020    2.9652790087
    33      2    5.8161829337    1.4239014020    1.5392090087
    34      2    5.0981929337    9.4066514020    2.3195890087
    35      2    4.7702729337    1.9671514020    9.3180690087
    36      2    4.5491129337    0.7057394020    5.2367390087
    37      2    5.8038629337    2.7894714020    7.1648190087
    38      2    8.3791729337    9.5662314020    8.1839690087
    39      2    5.1379329337    4.2401414020    8.7985990087
    40      2    7.1793729337    5.4441914020    0.3173290087
    41      2    3.2361229337    7.9212914020    1.0186190087
    42      2    0.1598459337    0.9649914020    0.1865820087
    43      2    6.9904129337    0.0822544020    3.9453490087
    44      2    0.8563839337    4.5754214020    9.4348790087
    45      2    0.7143639337    4.8269314020    5.2643590087
    46      2    7.4441329337    7.3217714020    1.8078890087
    47      2    7.3694129337    4.7627814020    3.5278990087
    48      2    5.2778029337    7.7186514020    6.1980390087
    49      2    4.9111129337    9.9047414020    9.5375190087
    50      2    2.8340329337    1.8789814020    3.5168290087
    51      2    3.3759729337    5.9766114020    1.9078990087
    52      2    5.2104429337    4.6541514020    6.4594390087
    53      2    6.2890429337    9.1921914020    8.1482290087
    54      2    5.3977429337    7.4425614020    1.6395290087
    55      2    2.0601129337    5.7358714020    7.5137090087
    56      2    7.3260229337    3.7428614020    5.4566690087
    57      2    5.8952929337    5.4831214020    1.9271690087
    58      2    0.1810969337    6.4219214020    9.0870990087
    59      2    7.1438529337    2.4059414020    3.0979990087
    60      2    6.2311229337    6.7669314020    3.5958090087
    61      2    7.2768629337    3.2954914020    8.6007290087
    62      2    2.3970229337    9.8702914020    5.2264490087
    63      2    6.6609029337    9.4125514020    0.9295190087
    64      2    4.4570429337    7.7339214020    8.5461890087
    65      3    2.2081429337    9.8391314020    0.0197792087
    66      3    2.9863229337    5.1464314020    9.3242690087
    67      3    6.7355229337    5.9469514020    5.5911690087
    68      3    3.8008729337    3.4289714020    1.4640290087
    69      3    2.3482729337    6.0989514020    4.0366090087
    70      3    1.1516729337    7.2003514020    1.5101190087
    71      3    7.8633129337    4.9697714020    7.4046590087
    72      3    8.2805029337    9.1550014020    5.7492990087
